
     Program PWSCF v.6.5 starts on  3Sep2020 at 12:53: 0 

     This program is part of the open-source Quantum ESPRESSO suite
     for quantum simulation of materials; please cite
         "P. Giannozzi et al., J. Phys.:Condens. Matter 21 395502 (2009);
         "P. Giannozzi et al., J. Phys.:Condens. Matter 29 465901 (2017);
          URL http://www.quantum-espresso.org", 
     in publications or presentations arising from this work. More details at
     http://www.quantum-espresso.org/quote

     Parallel version (MPI), running on    48 processors

     MPI processes distributed on     4 nodes
     R & G space division:  proc/nbgrp/npool/nimage =      48
     Reading input from pw.opt.in

     Current dimensions of program PWSCF are:
     Max number of different atomic species (ntypx) = 10
     Max number of k-points (npk) =  40000
     Max angular momentum in pseudopotentials (lmaxx) =  3

     IMPORTANT: XC functional enforced from input :
     Exchange-correlation= PBE
                           (   1   4   3   4   0   0   0)
     Any further DFT definition will be discarded
     Please, verify this is what you really want

               file O.upf: wavefunction(s)  2P renormalized

     Subspace diagonalization in iterative solution of the eigenvalue problem:
     one sub-group per band group will be used
     scalapack distributed-memory algorithm (size of sub-group:  6*  6 procs)

     Message from routine setup:
     using ibrav=0 with symmetry is DISCOURAGED, use correct ibrav instead
 
     Parallelization info
     --------------------
     sticks:   dense  smooth     PW     G-vecs:    dense   smooth      PW
     Min          51      30      9                 1219      566      93
     Max          52      31     10                 1222      569      96
     Sum        2449    1481    437                58571    27227    4539
 


     bravais-lattice index     =            0
     lattice parameter (alat)  =       8.7934  a.u.
     unit-cell volume          =     433.8638 (a.u.)^3
     number of atoms/cell      =            6
     number of atomic types    =            2
     number of electrons       =        48.00
     number of Kohn-Sham states=           24
     kinetic-energy cutoff     =      60.0000  Ry
     charge density cutoff     =     400.0000  Ry
     convergence threshold     =      1.0E-08
     mixing beta               =       0.7000
     number of iterations used =            8  plain     mixing
     Exchange-correlation= PBE
                           (   1   4   3   4   0   0   0)
     nstep                     =           50


     celldm(1)=   8.793410  celldm(2)=   0.000000  celldm(3)=   0.000000
     celldm(4)=   0.000000  celldm(5)=   0.000000  celldm(6)=   0.000000

     crystal axes: (cart. coord. in units of alat)
               a(1) = (   1.000000   0.000000   0.000000 )  
               a(2) = (   0.000000   1.000000   0.000000 )  
               a(3) = (   0.000000   0.000000   0.638089 )  

     reciprocal axes: (cart. coord. in units 2 pi/alat)
               b(1) = (  1.000000  0.000000  0.000000 )  
               b(2) = (  0.000000  1.000000  0.000000 )  
               b(3) = (  0.000000  0.000000  1.567179 )  


     PseudoPot. # 1 for Ti read from file:
     /home1/gmqg/umqg0003/pp/SSSP_precision_pseudos/Ti.upf
     MD5 check sum: 88a00a6731bd790ddea75d31a80cb452
     Pseudo is Ultrasoft + core correction, Zval = 12.0
     Generated by new atomic code, or converted to UPF format
     Using radial grid of  851 points,  6 beta functions with: 
                l(1) =   0
                l(2) =   0
                l(3) =   1
                l(4) =   1
                l(5) =   2
                l(6) =   2
     Q(r) pseudized with  6 coefficients,  rinner =    1.000   1.000   1.000
                                                       1.000   1.000

     PseudoPot. # 2 for O  read from file:
     /home1/gmqg/umqg0003/pp/SSSP_precision_pseudos/O.upf
     MD5 check sum: 0234752ac141de4415c5fc33072bef88
     Pseudo is Projector augmented-wave + core cor, Zval =  6.0
     Generated using "atomic" code by A. Dal Corso v.5.0.99 svn rev. 10869
     Shape of augmentation charge: BESSEL
     Using radial grid of 1095 points,  4 beta functions with: 
                l(1) =   0
                l(2) =   0
                l(3) =   1
                l(4) =   1
     Q(r) pseudized with 0 coefficients 


     atomic species   valence    mass     pseudopotential
        Ti            12.00    47.86700     Ti( 1.00)
        O              6.00    15.99900     O ( 1.00)

     16 Sym. Ops., with inversion, found ( 8 have fractional translation)



   Cartesian axes

     site n.     atom                  positions (alat units)
         1           Ti  tau(   1) = (   0.5000000   0.5000000   0.3190445  )
         2           Ti  tau(   2) = (   0.0000000   0.0000000   0.0000000  )
         3           O   tau(   3) = (   0.8045801   0.1954199   0.3190445  )
         4           O   tau(   4) = (   0.1954199   0.8045801   0.3190445  )
         5           O   tau(   5) = (   0.3045801   0.3045801   0.0000000  )
         6           O   tau(   6) = (   0.6954201   0.6954201   0.0000000  )

     number of k points=     6
                       cart. coord. in units 2pi/alat
        k(    1) = (   0.1666667   0.1666667   0.2611965), wk =   0.5925926
        k(    2) = (   0.1666667   0.1666667  -0.7835894), wk =   0.2962963
        k(    3) = (   0.1666667  -0.5000000   0.2611965), wk =   0.5925926
        k(    4) = (   0.1666667  -0.5000000  -0.7835894), wk =   0.2962963
        k(    5) = (  -0.5000000  -0.5000000   0.2611965), wk =   0.1481481
        k(    6) = (  -0.5000000  -0.5000000  -0.7835894), wk =   0.0740741

     Dense  grid:    58571 G-vectors     FFT dimensions: (  60,  60,  36)

     Smooth grid:    27227 G-vectors     FFT dimensions: (  48,  48,  30)

     Estimated max dynamical RAM per process >      13.82 MB

     Estimated total dynamical RAM >     663.23 MB

     Check: negative core charge=   -0.000007

     Initial potential from superposition of free atoms

     starting charge   45.99991, renormalised to   48.00000

     negative rho (up, down):  2.186E-03 0.000E+00
     Starting wfcs are   36 randomized atomic wfcs
     Checking if some PAW data can be deallocated... 

     total cpu time spent up to now is        1.5 secs

     Self-consistent Calculation

     iteration #  1     ecut=    60.00 Ry     beta= 0.70
     Davidson diagonalization with overlap
     ethr =  1.00E-02,  avg # of iterations =  2.0

     negative rho (up, down):  4.388E-03 0.000E+00

     total cpu time spent up to now is        1.8 secs

     total energy              =    -405.12305036 Ry
     Harris-Foulkes estimate   =    -406.23577286 Ry
     estimated scf accuracy    <       1.33996323 Ry

     iteration #  2     ecut=    60.00 Ry     beta= 0.70
     Davidson diagonalization with overlap
     ethr =  2.79E-03,  avg # of iterations =  5.0

     negative rho (up, down):  1.288E-03 0.000E+00

     total cpu time spent up to now is        2.6 secs

     total energy              =    -401.95234623 Ry
     Harris-Foulkes estimate   =    -408.42546036 Ry
     estimated scf accuracy    <      31.03465198 Ry

     iteration #  3     ecut=    60.00 Ry     beta= 0.70
     Davidson diagonalization with overlap
     ethr =  2.79E-03,  avg # of iterations =  5.7

     negative rho (up, down):  1.333E-03 0.000E+00

     total cpu time spent up to now is        3.4 secs

     total energy              =    -405.94379234 Ry
     Harris-Foulkes estimate   =    -405.99958938 Ry
     estimated scf accuracy    <       0.33533546 Ry

     iteration #  4     ecut=    60.00 Ry     beta= 0.70
     Davidson diagonalization with overlap
     ethr =  6.99E-04,  avg # of iterations =  1.2

     negative rho (up, down):  1.528E-03 0.000E+00

     total cpu time spent up to now is        3.7 secs

     total energy              =    -405.89842127 Ry
     Harris-Foulkes estimate   =    -405.94889481 Ry
     estimated scf accuracy    <       0.22730796 Ry

     iteration #  5     ecut=    60.00 Ry     beta= 0.70
     Davidson diagonalization with overlap
     ethr =  4.74E-04,  avg # of iterations =  3.0

     negative rho (up, down):  1.785E-03 0.000E+00

     total cpu time spent up to now is        4.1 secs

     total energy              =    -405.92804331 Ry
     Harris-Foulkes estimate   =    -405.93722911 Ry
     estimated scf accuracy    <       0.03883378 Ry

     iteration #  6     ecut=    60.00 Ry     beta= 0.70
     Davidson diagonalization with overlap
     ethr =  8.09E-05,  avg # of iterations =  3.2

     negative rho (up, down):  2.007E-03 0.000E+00

     total cpu time spent up to now is        4.5 secs

     total energy              =    -405.92859656 Ry
     Harris-Foulkes estimate   =    -405.93153978 Ry
     estimated scf accuracy    <       0.00924666 Ry

     iteration #  7     ecut=    60.00 Ry     beta= 0.70
     Davidson diagonalization with overlap
     ethr =  1.93E-05,  avg # of iterations =  3.7

     negative rho (up, down):  2.027E-03 0.000E+00

     total cpu time spent up to now is        5.1 secs

     total energy              =    -405.93148642 Ry
     Harris-Foulkes estimate   =    -405.93164468 Ry
     estimated scf accuracy    <       0.00103449 Ry

     iteration #  8     ecut=    60.00 Ry     beta= 0.70
     Davidson diagonalization with overlap
     ethr =  2.16E-06,  avg # of iterations =  2.2

     negative rho (up, down):  2.040E-03 0.000E+00

     total cpu time spent up to now is        5.6 secs

     total energy              =    -405.93126358 Ry
     Harris-Foulkes estimate   =    -405.93156091 Ry
     estimated scf accuracy    <       0.00075367 Ry

     iteration #  9     ecut=    60.00 Ry     beta= 0.70
     Davidson diagonalization with overlap
     ethr =  1.57E-06,  avg # of iterations =  3.7

     negative rho (up, down):  2.060E-03 0.000E+00

     total cpu time spent up to now is        6.1 secs

     total energy              =    -405.93146028 Ry
     Harris-Foulkes estimate   =    -405.93148853 Ry
     estimated scf accuracy    <       0.00014255 Ry

     iteration # 10     ecut=    60.00 Ry     beta= 0.70
     Davidson diagonalization with overlap
     ethr =  2.97E-07,  avg # of iterations =  1.2

     negative rho (up, down):  2.066E-03 0.000E+00

     total cpu time spent up to now is        6.3 secs

     total energy              =    -405.93143697 Ry
     Harris-Foulkes estimate   =    -405.93146516 Ry
     estimated scf accuracy    <       0.00006794 Ry

     iteration # 11     ecut=    60.00 Ry     beta= 0.70
     Davidson diagonalization with overlap
     ethr =  1.42E-07,  avg # of iterations =  3.7

     negative rho (up, down):  2.063E-03 0.000E+00

     total cpu time spent up to now is        6.9 secs

     total energy              =    -405.93146022 Ry
     Harris-Foulkes estimate   =    -405.93147092 Ry
     estimated scf accuracy    <       0.00003952 Ry

     iteration # 12     ecut=    60.00 Ry     beta= 0.70
     Davidson diagonalization with overlap
     ethr =  8.23E-08,  avg # of iterations =  3.0

     negative rho (up, down):  2.062E-03 0.000E+00

     total cpu time spent up to now is        7.3 secs

     total energy              =    -405.93146368 Ry
     Harris-Foulkes estimate   =    -405.93146367 Ry
     estimated scf accuracy    <       0.00000272 Ry

     iteration # 13     ecut=    60.00 Ry     beta= 0.70
     Davidson diagonalization with overlap
     ethr =  5.66E-09,  avg # of iterations =  3.5

     negative rho (up, down):  2.062E-03 0.000E+00

     total cpu time spent up to now is        7.7 secs

     total energy              =    -405.93146402 Ry
     Harris-Foulkes estimate   =    -405.93146421 Ry
     estimated scf accuracy    <       0.00000130 Ry

     iteration # 14     ecut=    60.00 Ry     beta= 0.70
     Davidson diagonalization with overlap
     ethr =  2.71E-09,  avg # of iterations =  1.7

     negative rho (up, down):  2.062E-03 0.000E+00

     total cpu time spent up to now is        8.0 secs

     total energy              =    -405.93146390 Ry
     Harris-Foulkes estimate   =    -405.93146406 Ry
     estimated scf accuracy    <       0.00000060 Ry

     iteration # 15     ecut=    60.00 Ry     beta= 0.70
     Davidson diagonalization with overlap
     ethr =  1.25E-09,  avg # of iterations =  3.2

     negative rho (up, down):  2.062E-03 0.000E+00

     total cpu time spent up to now is        8.5 secs

     total energy              =    -405.93146403 Ry
     Harris-Foulkes estimate   =    -405.93146404 Ry
     estimated scf accuracy    <       0.00000001 Ry

     iteration # 16     ecut=    60.00 Ry     beta= 0.70
     Davidson diagonalization with overlap
     ethr =  3.04E-11,  avg # of iterations =  3.5

     negative rho (up, down):  2.062E-03 0.000E+00

     total cpu time spent up to now is        9.0 secs

     End of self-consistent calculation

          k = 0.1667 0.1667 0.2612 (  3392 PWs)   bands (ev):

   -48.2282 -48.2188 -24.5067 -24.4834 -24.4508 -24.4430 -24.4001 -24.3809
    -8.9513  -8.1108  -7.8503  -7.7274   3.5797   4.1116   4.3528   4.7993
     5.0157   5.8215   6.4150   6.6116   6.6735   7.6281   7.6763   8.3315

          k = 0.1667 0.1667-0.7836 (  3412 PWs)   bands (ev):

   -48.1951 -48.1950 -24.7635 -24.7582 -24.4053 -24.3985 -24.3842 -24.3833
    -8.2871  -8.0714  -7.9445  -7.7185   3.9917   4.4784   4.6860   4.7153
     4.8808   5.9488   6.0810   6.1867   6.7118   6.9669   7.1117   7.3164

          k = 0.1667-0.5000 0.2612 (  3404 PWs)   bands (ev):

   -48.2235 -48.2234 -24.4880 -24.4880 -24.4483 -24.4482 -24.3978 -24.3977
    -8.4941  -8.4940  -7.8492  -7.8492   4.0362   4.0362   4.5804   4.5804
     5.7331   5.7331   6.3158   6.3158   6.6885   6.6885   7.8335   7.8335

          k = 0.1667-0.5000-0.7836 (  3404 PWs)   bands (ev):

   -48.1951 -48.1950 -24.7641 -24.7640 -24.3993 -24.3993 -24.3837 -24.3837
    -8.2915  -8.2915  -7.7064  -7.7064   3.8427   3.8427   4.7391   4.7391
     5.3907   5.3908   6.1699   6.1699   7.0438   7.0438   7.7663   7.7663

          k =-0.5000-0.5000 0.2612 (  3424 PWs)   bands (ev):

   -48.2235 -48.2234 -24.5138 -24.5138 -24.4443 -24.4443 -24.3766 -24.3766
    -8.5204  -8.5204  -7.8080  -7.8080   3.6134   3.6134   4.4156   4.4156
     6.6210   6.6210   6.7399   6.7399   6.7747   6.7748   7.2913   7.2913

          k =-0.5000-0.5000-0.7836 (  3416 PWs)   bands (ev):

   -48.1950 -48.1950 -24.7569 -24.7569 -24.4067 -24.4066 -24.3851 -24.3851
    -8.1336  -8.1336  -7.8665  -7.8665   4.1498   4.1498   4.2337   4.2337
     5.2654   5.2654   5.9769   5.9769   7.4790   7.4790   8.0190   8.0190

     highest occupied level (ev):     8.3315

!    total energy              =    -405.93146404 Ry
     Harris-Foulkes estimate   =    -405.93146404 Ry
     estimated scf accuracy    <          3.1E-10 Ry

     The total energy is the sum of the following terms:

     one-electron contribution =    -127.65120715 Ry
     hartree contribution      =      87.02902858 Ry
     xc contribution           =     -65.73964934 Ry
     ewald contribution        =    -261.50750971 Ry
     one-center paw contrib.   =     -38.06212641 Ry

     convergence has been achieved in  16 iterations

     negative rho (up, down):  2.062E-03 0.000E+00

     Forces acting on atoms (cartesian axes, Ry/au):

     atom    1 type  1   force =     0.00000000    0.00000000    0.00000000
     atom    2 type  1   force =     0.00000000    0.00000000    0.00000000
     atom    3 type  2   force =     0.00330564   -0.00330564    0.00000000
     atom    4 type  2   force =    -0.00330564    0.00330564    0.00000000
     atom    5 type  2   force =     0.00330564    0.00330564   -0.00000000
     atom    6 type  2   force =    -0.00330564   -0.00330564   -0.00000000

     Total force =     0.009350     Total SCF correction =     0.000017


     Computing stress (Cartesian axis) and pressure


     negative rho (up, down):  2.062E-03 0.000E+00
          total   stress  (Ry/bohr**3)                   (kbar)     P=      -20.52
  -0.00010525   0.00000000   0.00000000          -15.48        0.00        0.00
   0.00000000  -0.00010525   0.00000000            0.00      -15.48        0.00
   0.00000000   0.00000000  -0.00020795            0.00        0.00      -30.59


     BFGS Geometry Optimization

     number of scf cycles    =   1
     number of bfgs steps    =   0

     enthalpy new            =    -405.9314640371 Ry

     new trust radius        =       0.0216574350 bohr
     new conv_thr            =       0.0000000100 Ry

     new unit-cell volume =    429.33982 a.u.^3 (    63.62160 Ang^3 )
     density =      4.16899 g/cm^3

CELL_PARAMETERS (angstrom)
   4.641027915   0.000000000   0.000000000
   0.000000000   4.641027915   0.000000000
   0.000000000   0.000000000   2.953766806

ATOMIC_POSITIONS (angstrom)
Ti            2.3205139577        2.3205139577        1.4768829055
Ti            0.0000000000        0.0000000000        0.0000000000
O             3.7358233225        0.9052045930        1.4768829055
O             0.9052045930        3.7358233225        1.4768829055
O             1.4153093648        1.4153093648       -0.0000000000
O             3.2257195481        3.2257195481       -0.0000000000



     Writing output data file /work/TiO2_opt.save/
     NEW-OLD atomic charge density approx. for the potential

     Check: negative core charge=   -0.000006

     negative rho (up, down):  2.048E-03 0.000E+00
     extrapolated charge   47.51530, renormalised to   48.00000

     total cpu time spent up to now is        9.6 secs

     Self-consistent Calculation

     iteration #  1     ecut=    60.00 Ry     beta= 0.70
     Davidson diagonalization with overlap
     ethr =  1.00E-06,  avg # of iterations =  8.0

     negative rho (up, down):  1.664E-03 0.000E+00

     total cpu time spent up to now is       10.5 secs

     total energy              =    -405.90427900 Ry
     Harris-Foulkes estimate   =    -406.91716029 Ry
     estimated scf accuracy    <       0.02206736 Ry

     iteration #  2     ecut=    60.00 Ry     beta= 0.70
     Davidson diagonalization with overlap
     ethr =  4.60E-05,  avg # of iterations =  4.0

     negative rho (up, down):  1.924E-03 0.000E+00

     total cpu time spent up to now is       11.1 secs

     total energy              =    -405.91870161 Ry
     Harris-Foulkes estimate   =    -405.96413953 Ry
     estimated scf accuracy    <       0.13957623 Ry

     iteration #  3     ecut=    60.00 Ry     beta= 0.70
     Davidson diagonalization with overlap
     ethr =  4.60E-05,  avg # of iterations =  3.7

     negative rho (up, down):  1.974E-03 0.000E+00

     total cpu time spent up to now is       11.7 secs

     total energy              =    -405.93271105 Ry
     Harris-Foulkes estimate   =    -405.93497530 Ry
     estimated scf accuracy    <       0.00790932 Ry

     iteration #  4     ecut=    60.00 Ry     beta= 0.70
     Davidson diagonalization with overlap
     ethr =  1.65E-05,  avg # of iterations =  1.5

     negative rho (up, down):  2.013E-03 0.000E+00

     total cpu time spent up to now is       12.0 secs

     total energy              =    -405.93218514 Ry
     Harris-Foulkes estimate   =    -405.93307164 Ry
     estimated scf accuracy    <       0.00374371 Ry

     iteration #  5     ecut=    60.00 Ry     beta= 0.70
     Davidson diagonalization with overlap
     ethr =  7.80E-06,  avg # of iterations =  1.0

     negative rho (up, down):  2.043E-03 0.000E+00

     total cpu time spent up to now is       12.2 secs

     total energy              =    -405.93181705 Ry
     Harris-Foulkes estimate   =    -405.93229920 Ry
     estimated scf accuracy    <       0.00210130 Ry

     iteration #  6     ecut=    60.00 Ry     beta= 0.70
     Davidson diagonalization with overlap
     ethr =  4.38E-06,  avg # of iterations =  1.0

     negative rho (up, down):  2.056E-03 0.000E+00

     total cpu time spent up to now is       12.5 secs

     total energy              =    -405.93168241 Ry
     Harris-Foulkes estimate   =    -405.93188495 Ry
     estimated scf accuracy    <       0.00099670 Ry

     iteration #  7     ecut=    60.00 Ry     beta= 0.70
     Davidson diagonalization with overlap
     ethr =  2.08E-06,  avg # of iterations =  3.3

     negative rho (up, down):  2.097E-03 0.000E+00

     total cpu time spent up to now is       13.0 secs

     total energy              =    -405.93176017 Ry
     Harris-Foulkes estimate   =    -405.93189623 Ry
     estimated scf accuracy    <       0.00025745 Ry

     iteration #  8     ecut=    60.00 Ry     beta= 0.70
     Davidson diagonalization with overlap
     ethr =  5.36E-07,  avg # of iterations =  2.0

     negative rho (up, down):  2.092E-03 0.000E+00

     total cpu time spent up to now is       13.4 secs

     total energy              =    -405.93179954 Ry
     Harris-Foulkes estimate   =    -405.93181757 Ry
     estimated scf accuracy    <       0.00007203 Ry

     iteration #  9     ecut=    60.00 Ry     beta= 0.70
     Davidson diagonalization with overlap
     ethr =  1.50E-07,  avg # of iterations =  1.0

     negative rho (up, down):  2.092E-03 0.000E+00

     total cpu time spent up to now is       13.7 secs

     total energy              =    -405.93180202 Ry
     Harris-Foulkes estimate   =    -405.93180115 Ry
     estimated scf accuracy    <       0.00003962 Ry

     iteration # 10     ecut=    60.00 Ry     beta= 0.70
     Davidson diagonalization with overlap
     ethr =  8.25E-08,  avg # of iterations =  1.0

     negative rho (up, down):  2.087E-03 0.000E+00

     total cpu time spent up to now is       13.9 secs

     total energy              =    -405.93179361 Ry
     Harris-Foulkes estimate   =    -405.93180221 Ry
     estimated scf accuracy    <       0.00004023 Ry

     iteration # 11     ecut=    60.00 Ry     beta= 0.70
     Davidson diagonalization with overlap
     ethr =  8.25E-08,  avg # of iterations =  1.3

     negative rho (up, down):  2.086E-03 0.000E+00

     total cpu time spent up to now is       14.2 secs

     total energy              =    -405.93179349 Ry
     Harris-Foulkes estimate   =    -405.93179514 Ry
     estimated scf accuracy    <       0.00001463 Ry

     iteration # 12     ecut=    60.00 Ry     beta= 0.70
     Davidson diagonalization with overlap
     ethr =  3.05E-08,  avg # of iterations =  3.0

     negative rho (up, down):  2.081E-03 0.000E+00

     total cpu time spent up to now is       14.7 secs

     total energy              =    -405.93179525 Ry
     Harris-Foulkes estimate   =    -405.93179577 Ry
     estimated scf accuracy    <       0.00000114 Ry

     iteration # 13     ecut=    60.00 Ry     beta= 0.70
     Davidson diagonalization with overlap
     ethr =  2.37E-09,  avg # of iterations =  4.2

     negative rho (up, down):  2.085E-03 0.000E+00

     total cpu time spent up to now is       15.3 secs

     total energy              =    -405.93179270 Ry
     Harris-Foulkes estimate   =    -405.93180204 Ry
     estimated scf accuracy    <       0.00003703 Ry

     iteration # 14     ecut=    60.00 Ry     beta= 0.70
     Davidson diagonalization with overlap
     ethr =  2.37E-09,  avg # of iterations =  4.7

     negative rho (up, down):  2.087E-03 0.000E+00

     total cpu time spent up to now is       16.0 secs

     total energy              =    -405.93179470 Ry
     Harris-Foulkes estimate   =    -405.93179602 Ry
     estimated scf accuracy    <       0.00000223 Ry

     iteration # 15     ecut=    60.00 Ry     beta= 0.70
     Davidson diagonalization with overlap
     ethr =  2.37E-09,  avg # of iterations =  4.0

     negative rho (up, down):  2.088E-03 0.000E+00

     total cpu time spent up to now is       16.6 secs

     total energy              =    -405.93180206 Ry
     Harris-Foulkes estimate   =    -405.93179663 Ry
     estimated scf accuracy    <       0.00000571 Ry

     iteration # 16     ecut=    60.00 Ry     beta= 0.70
     Davidson diagonalization with overlap
     ethr =  2.37E-09,  avg # of iterations =  4.0

     negative rho (up, down):  2.088E-03 0.000E+00

     total cpu time spent up to now is       17.2 secs

     total energy              =    -405.93179900 Ry
     Harris-Foulkes estimate   =    -405.93180622 Ry
     estimated scf accuracy    <       0.00006133 Ry

     iteration # 17     ecut=    60.00 Ry     beta= 0.70
     Davidson diagonalization with overlap
     ethr =  2.37E-09,  avg # of iterations =  4.0

     negative rho (up, down):  2.085E-03 0.000E+00

     total cpu time spent up to now is       17.8 secs

     total energy              =    -405.93179050 Ry
     Harris-Foulkes estimate   =    -405.93180004 Ry
     estimated scf accuracy    <       0.00002589 Ry

     iteration # 18     ecut=    60.00 Ry     beta= 0.70
     Davidson diagonalization with overlap
     ethr =  2.37E-09,  avg # of iterations =  4.2

     negative rho (up, down):  2.085E-03 0.000E+00

     total cpu time spent up to now is       18.5 secs

     total energy              =    -405.93179510 Ry
     Harris-Foulkes estimate   =    -405.93179578 Ry
     estimated scf accuracy    <       0.00000118 Ry

     iteration # 19     ecut=    60.00 Ry     beta= 0.70
     Davidson diagonalization with overlap
     ethr =  2.37E-09,  avg # of iterations =  3.7

     negative rho (up, down):  2.085E-03 0.000E+00

     total cpu time spent up to now is       19.0 secs

     total energy              =    -405.93179534 Ry
     Harris-Foulkes estimate   =    -405.93179585 Ry
     estimated scf accuracy    <       0.00000168 Ry

     iteration # 20     ecut=    60.00 Ry     beta= 0.70
     Davidson diagonalization with overlap
     ethr =  2.37E-09,  avg # of iterations =  3.0

     negative rho (up, down):  2.085E-03 0.000E+00

     total cpu time spent up to now is       19.5 secs

     End of self-consistent calculation

          k = 0.1671 0.1671 0.2626 (  3392 PWs)   bands (ev):

   -48.0346 -48.0247 -24.3239 -24.2992 -24.2650 -24.2564 -24.2115 -24.1917
    -8.8417  -7.9924  -7.7204  -7.5953   3.6871   4.2143   4.4451   4.9017
     5.1173   5.9530   6.5585   6.7477   6.8017   7.7688   7.8080   8.4641

          k = 0.1671 0.1671-0.7877 (  3412 PWs)   bands (ev):

   -47.9992 -47.9991 -24.5959 -24.5905 -24.2162 -24.2092 -24.1946 -24.1937
    -8.1754  -7.9596  -7.8041  -7.5768   4.0857   4.5864   4.8186   4.8220
     5.0024   6.0737   6.2185   6.3183   6.8370   7.0831   7.2394   7.4473

          k = 0.1671-0.5013 0.2626 (  3404 PWs)   bands (ev):

   -48.0297 -48.0296 -24.3042 -24.3042 -24.2622 -24.2622 -24.2091 -24.2091
    -8.3783  -8.3783  -7.7206  -7.7206   4.1415   4.1415   4.6798   4.6798
     5.8489   5.8489   6.4554   6.4554   6.8229   6.8229   7.9634   7.9634

          k = 0.1671-0.5013-0.7877 (  3404 PWs)   bands (ev):

   -47.9991 -47.9991 -24.5965 -24.5964 -24.2101 -24.2100 -24.1941 -24.1941
    -8.1812  -8.1812  -7.5632  -7.5632   3.9370   3.9370   4.8645   4.8645
     5.5134   5.5134   6.3020   6.3020   7.1704   7.1704   7.8974   7.8974

          k =-0.5013-0.5013 0.2626 (  3424 PWs)   bands (ev):

   -48.0296 -48.0296 -24.3313 -24.3313 -24.2577 -24.2577 -24.1872 -24.1872
    -8.4062  -8.4062  -7.6774  -7.6774   3.7208   3.7208   4.5130   4.5130
     6.7591   6.7591   6.8604   6.8604   6.8896   6.8897   7.4406   7.4406

          k =-0.5013-0.5013-0.7877 (  3416 PWs)   bands (ev):

   -47.9991 -47.9990 -24.5892 -24.5891 -24.2177 -24.2176 -24.1956 -24.1955
    -8.0226  -8.0226  -7.7248  -7.7248   4.2497   4.2497   4.3566   4.3566
     5.3858   5.3858   6.1012   6.1012   7.6122   7.6122   8.1546   8.1546

     highest occupied level (ev):     8.4641

!    total energy              =    -405.93179556 Ry
     Harris-Foulkes estimate   =    -405.93179556 Ry
     estimated scf accuracy    <          5.1E-10 Ry

     The total energy is the sum of the following terms:

     one-electron contribution =    -126.54614860 Ry
     hartree contribution      =      86.76089881 Ry
     xc contribution           =     -65.78729813 Ry
     ewald contribution        =    -262.29807613 Ry
     one-center paw contrib.   =     -38.06117152 Ry

     convergence has been achieved in  20 iterations

     negative rho (up, down):  2.085E-03 0.000E+00

     Forces acting on atoms (cartesian axes, Ry/au):

     atom    1 type  1   force =     0.00000000    0.00000000   -0.00000000
     atom    2 type  1   force =     0.00000000    0.00000000    0.00000000
     atom    3 type  2   force =     0.00057915   -0.00057915   -0.00000000
     atom    4 type  2   force =    -0.00057915    0.00057915   -0.00000000
     atom    5 type  2   force =     0.00057915    0.00057915    0.00000000
     atom    6 type  2   force =    -0.00057915   -0.00057915    0.00000000

     Total force =     0.001638     Total SCF correction =     0.000003


     Computing stress (Cartesian axis) and pressure


     negative rho (up, down):  2.085E-03 0.000E+00
          total   stress  (Ry/bohr**3)                   (kbar)     P=        5.45
   0.00004178   0.00000000   0.00000000            6.15        0.00        0.00
   0.00000000   0.00004178   0.00000000            0.00        6.15        0.00
   0.00000000   0.00000000   0.00002765            0.00        0.00        4.07


     number of scf cycles    =   2
     number of bfgs steps    =   1

     enthalpy old            =    -405.9314640371 Ry
     enthalpy new            =    -405.9317955615 Ry

     CASE: enthalpy_new < enthalpy_old

     new trust radius        =       0.0034287504 bohr
     new conv_thr            =       0.0000000006 Ry

     new unit-cell volume =    430.25612 a.u.^3 (    63.75738 Ang^3 )
     density =      4.16011 g/cm^3

CELL_PARAMETERS (angstrom)
   4.644867812   0.000000000   0.000000000
   0.000000000   4.644867812   0.000000000
   0.000000000   0.000000000   2.955178589

ATOMIC_POSITIONS (angstrom)
Ti            2.3224339058        2.3224339058        1.4775887969
Ti            0.0000000000        0.0000000000        0.0000000000
O             3.7392098341        0.9056579775        1.4775887969
O             0.9056579775        3.7392098341        1.4775887969
O             1.4167759283        1.4167759283       -0.0000000000
O             3.2280928814        3.2280928814       -0.0000000000



     Writing output data file /work/TiO2_opt.save/
     NEW-OLD atomic charge density approx. for the potential

     Check: negative core charge=   -0.000006

     negative rho (up, down):  2.084E-03 0.000E+00
     extrapolated charge   48.09796, renormalised to   48.00000

     total cpu time spent up to now is       20.0 secs

     Self-consistent Calculation

     iteration #  1     ecut=    60.00 Ry     beta= 0.70
     Davidson diagonalization with overlap
     ethr =  1.00E-06,  avg # of iterations =  4.0

     negative rho (up, down):  2.177E-03 0.000E+00

     total cpu time spent up to now is       20.6 secs

     total energy              =    -405.93087923 Ry
     Harris-Foulkes estimate   =    -405.73294723 Ry
     estimated scf accuracy    <       0.00070253 Ry

     iteration #  2     ecut=    60.00 Ry     beta= 0.70
     Davidson diagonalization with overlap
     ethr =  1.46E-06,  avg # of iterations =  4.5

     negative rho (up, down):  2.109E-03 0.000E+00

     total cpu time spent up to now is       21.3 secs

     total energy              =    -405.93127779 Ry
     Harris-Foulkes estimate   =    -405.93288097 Ry
     estimated scf accuracy    <       0.00525066 Ry

     iteration #  3     ecut=    60.00 Ry     beta= 0.70
     Davidson diagonalization with overlap
     ethr =  1.46E-06,  avg # of iterations =  3.8

     negative rho (up, down):  2.100E-03 0.000E+00

     total cpu time spent up to now is       21.9 secs

     total energy              =    -405.93184616 Ry
     Harris-Foulkes estimate   =    -405.93193595 Ry
     estimated scf accuracy    <       0.00027429 Ry

     iteration #  4     ecut=    60.00 Ry     beta= 0.70
     Davidson diagonalization with overlap
     ethr =  5.71E-07,  avg # of iterations =  1.8

     negative rho (up, down):  2.095E-03 0.000E+00

     total cpu time spent up to now is       22.2 secs

     total energy              =    -405.93184360 Ry
     Harris-Foulkes estimate   =    -405.93186174 Ry
     estimated scf accuracy    <       0.00010125 Ry

     iteration #  5     ecut=    60.00 Ry     beta= 0.70
     Davidson diagonalization with overlap
     ethr =  2.11E-07,  avg # of iterations =  1.0

     negative rho (up, down):  2.083E-03 0.000E+00

     total cpu time spent up to now is       22.5 secs

     total energy              =    -405.93181725 Ry
     Harris-Foulkes estimate   =    -405.93184659 Ry
     estimated scf accuracy    <       0.00007125 Ry

     iteration #  6     ecut=    60.00 Ry     beta= 0.70
     Davidson diagonalization with overlap
     ethr =  1.48E-07,  avg # of iterations =  2.0

     negative rho (up, down):  2.081E-03 0.000E+00

     total cpu time spent up to now is       22.8 secs

     total energy              =    -405.93181943 Ry
     Harris-Foulkes estimate   =    -405.93182335 Ry
     estimated scf accuracy    <       0.00002471 Ry

     iteration #  7     ecut=    60.00 Ry     beta= 0.70
     Davidson diagonalization with overlap
     ethr =  5.15E-08,  avg # of iterations =  2.2

     negative rho (up, down):  2.079E-03 0.000E+00

     total cpu time spent up to now is       23.2 secs

     total energy              =    -405.93181904 Ry
     Harris-Foulkes estimate   =    -405.93182052 Ry
     estimated scf accuracy    <       0.00000971 Ry

     iteration #  8     ecut=    60.00 Ry     beta= 0.70
     Davidson diagonalization with overlap
     ethr =  2.02E-08,  avg # of iterations =  2.7

     negative rho (up, down):  2.077E-03 0.000E+00

     total cpu time spent up to now is       23.5 secs

     total energy              =    -405.93181879 Ry
     Harris-Foulkes estimate   =    -405.93181991 Ry
     estimated scf accuracy    <       0.00000290 Ry

     iteration #  9     ecut=    60.00 Ry     beta= 0.70
     Davidson diagonalization with overlap
     ethr =  6.04E-09,  avg # of iterations =  3.2

     negative rho (up, down):  2.076E-03 0.000E+00

     total cpu time spent up to now is       24.0 secs

     total energy              =    -405.93181934 Ry
     Harris-Foulkes estimate   =    -405.93181953 Ry
     estimated scf accuracy    <       0.00000072 Ry

     iteration # 10     ecut=    60.00 Ry     beta= 0.70
     Davidson diagonalization with overlap
     ethr =  1.49E-09,  avg # of iterations =  2.5

     negative rho (up, down):  2.076E-03 0.000E+00

     total cpu time spent up to now is       24.5 secs

     total energy              =    -405.93181921 Ry
     Harris-Foulkes estimate   =    -405.93181937 Ry
     estimated scf accuracy    <       0.00000034 Ry

     iteration # 11     ecut=    60.00 Ry     beta= 0.70
     Davidson diagonalization with overlap
     ethr =  6.98E-10,  avg # of iterations =  4.0

     negative rho (up, down):  2.076E-03 0.000E+00

     total cpu time spent up to now is       25.2 secs

     total energy              =    -405.93181937 Ry
     Harris-Foulkes estimate   =    -405.93181934 Ry
     estimated scf accuracy    <       0.00000013 Ry

     iteration # 12     ecut=    60.00 Ry     beta= 0.70
     Davidson diagonalization with overlap
     ethr =  2.72E-10,  avg # of iterations =  2.5

     negative rho (up, down):  2.076E-03 0.000E+00

     total cpu time spent up to now is       25.6 secs

     total energy              =    -405.93181932 Ry
     Harris-Foulkes estimate   =    -405.93181938 Ry
     estimated scf accuracy    <       0.00000028 Ry

     iteration # 13     ecut=    60.00 Ry     beta= 0.70
     Davidson diagonalization with overlap
     ethr =  2.72E-10,  avg # of iterations =  2.5

     negative rho (up, down):  2.076E-03 0.000E+00

     total cpu time spent up to now is       25.9 secs

     total energy              =    -405.93181932 Ry
     Harris-Foulkes estimate   =    -405.93181933 Ry
     estimated scf accuracy    <       0.00000010 Ry

     iteration # 14     ecut=    60.00 Ry     beta= 0.70
     Davidson diagonalization with overlap
     ethr =  2.18E-10,  avg # of iterations =  1.7

     negative rho (up, down):  2.076E-03 0.000E+00

     total cpu time spent up to now is       26.3 secs

     total energy              =    -405.93181930 Ry
     Harris-Foulkes estimate   =    -405.93181932 Ry
     estimated scf accuracy    <       0.00000005 Ry

     iteration # 15     ecut=    60.00 Ry     beta= 0.70
     Davidson diagonalization with overlap
     ethr =  1.05E-10,  avg # of iterations =  3.3

     negative rho (up, down):  2.076E-03 0.000E+00

     total cpu time spent up to now is       26.8 secs

     total energy              =    -405.93181932 Ry
     Harris-Foulkes estimate   =    -405.93181933 Ry
     estimated scf accuracy    <       0.00000002 Ry

     iteration # 16     ecut=    60.00 Ry     beta= 0.70
     Davidson diagonalization with overlap
     ethr =  5.16E-11,  avg # of iterations =  1.0

     negative rho (up, down):  2.076E-03 0.000E+00

     total cpu time spent up to now is       27.1 secs

     total energy              =    -405.93181932 Ry
     Harris-Foulkes estimate   =    -405.93181932 Ry
     estimated scf accuracy    <       0.00000001 Ry

     iteration # 17     ecut=    60.00 Ry     beta= 0.70
     Davidson diagonalization with overlap
     ethr =  2.41E-11,  avg # of iterations =  1.0

     negative rho (up, down):  2.076E-03 0.000E+00

     total cpu time spent up to now is       27.4 secs

     total energy              =    -405.93181932 Ry
     Harris-Foulkes estimate   =    -405.93181932 Ry
     estimated scf accuracy    <       0.00000001 Ry

     iteration # 18     ecut=    60.00 Ry     beta= 0.70
     Davidson diagonalization with overlap
     ethr =  2.24E-11,  avg # of iterations =  3.2

     negative rho (up, down):  2.076E-03 0.000E+00

     total cpu time spent up to now is       27.8 secs

     total energy              =    -405.93181932 Ry
     Harris-Foulkes estimate   =    -405.93181932 Ry
     estimated scf accuracy    <          7.2E-10 Ry

     iteration # 19     ecut=    60.00 Ry     beta= 0.70
     Davidson diagonalization with overlap
     ethr =  1.50E-12,  avg # of iterations =  1.5

     negative rho (up, down):  2.076E-03 0.000E+00

     total cpu time spent up to now is       28.1 secs

     End of self-consistent calculation

          k = 0.1670 0.1670 0.2624 (  3392 PWs)   bands (ev):

   -48.0723 -48.0626 -24.3596 -24.3353 -24.3015 -24.2929 -24.2483 -24.2287
    -8.8653  -8.0194  -7.7476  -7.6241   3.6644   4.1905   4.4249   4.8770
     5.0943   5.9275   6.5309   6.7195   6.7728   7.7388   7.7775   8.4327

          k = 0.1670 0.1670-0.7873 (  3412 PWs)   bands (ev):

   -48.0371 -48.0371 -24.6305 -24.6251 -24.2526 -24.2458 -24.2316 -24.2307
    -8.2000  -7.9863  -7.8311  -7.6062   4.0644   4.5628   4.7974   4.7978
     4.9775   6.0447   6.1881   6.2901   6.8137   7.0529   7.2141   7.4169

          k = 0.1670-0.5009 0.2624 (  3404 PWs)   bands (ev):

   -48.0674 -48.0674 -24.3401 -24.3401 -24.2987 -24.2987 -24.2459 -24.2459
    -8.4041  -8.4041  -7.7478  -7.7478   4.1172   4.1172   4.6566   4.6567
     5.8245   5.8245   6.4284   6.4284   6.7950   6.7950   7.9329   7.9329

          k = 0.1670-0.5009-0.7873 (  3404 PWs)   bands (ev):

   -48.0371 -48.0370 -24.6310 -24.6310 -24.2466 -24.2466 -24.2311 -24.2310
    -8.2058  -8.2058  -7.5926  -7.5926   3.9162   3.9162   4.8410   4.8410
     5.4874   5.4874   6.2722   6.2722   7.1423   7.1423   7.8678   7.8678

          k =-0.5009-0.5009 0.2624 (  3424 PWs)   bands (ev):

   -48.0674 -48.0673 -24.3670 -24.3670 -24.2943 -24.2942 -24.2242 -24.2242
    -8.4313  -8.4313  -7.7056  -7.7056   3.6986   3.6986   4.4903   4.4904
     6.7307   6.7308   6.8323   6.8323   6.8633   6.8634   7.4103   7.4103

          k =-0.5009-0.5009-0.7873 (  3416 PWs)   bands (ev):

   -48.0371 -48.0370 -24.6238 -24.6238 -24.2541 -24.2540 -24.2325 -24.2325
    -8.0489  -8.0489  -7.7523  -7.7523   4.2299   4.2299   4.3319   4.3319
     5.3604   5.3604   6.0720   6.0720   7.5853   7.5853   8.1217   8.1217

     highest occupied level (ev):     8.4327

!    total energy              =    -405.93181932 Ry
     Harris-Foulkes estimate   =    -405.93181932 Ry
     estimated scf accuracy    <          3.3E-10 Ry

     The total energy is the sum of the following terms:

     one-electron contribution =    -126.85696901 Ry
     hartree contribution      =      86.85834585 Ry
     xc contribution           =     -65.77897100 Ry
     ewald contribution        =    -262.09285241 Ry
     one-center paw contrib.   =     -38.06137276 Ry

     convergence has been achieved in  19 iterations

     negative rho (up, down):  2.076E-03 0.000E+00

     Forces acting on atoms (cartesian axes, Ry/au):

     atom    1 type  1   force =     0.00000000    0.00000000   -0.00000000
     atom    2 type  1   force =     0.00000000    0.00000000    0.00000000
     atom    3 type  2   force =     0.00066716   -0.00066716    0.00000000
     atom    4 type  2   force =    -0.00066716    0.00066716    0.00000000
     atom    5 type  2   force =     0.00066716    0.00066716   -0.00000000
     atom    6 type  2   force =    -0.00066716   -0.00066716   -0.00000000

     Total force =     0.001887     Total SCF correction =     0.000006


     Computing stress (Cartesian axis) and pressure


     negative rho (up, down):  2.076E-03 0.000E+00
          total   stress  (Ry/bohr**3)                   (kbar)     P=        0.90
   0.00001177   0.00000000   0.00000000            1.73        0.00        0.00
   0.00000000   0.00001177   0.00000000            0.00        1.73        0.00
   0.00000000   0.00000000  -0.00000515            0.00        0.00       -0.76


     number of scf cycles    =   3
     number of bfgs steps    =   2

     enthalpy old            =    -405.9317955615 Ry
     enthalpy new            =    -405.9318193219 Ry

     CASE: enthalpy_new < enthalpy_old

     new trust radius        =       0.0021746518 bohr
     new conv_thr            =       0.0000000002 Ry

     new unit-cell volume =    430.63243 a.u.^3 (    63.81314 Ang^3 )
     density =      4.15648 g/cm^3

CELL_PARAMETERS (angstrom)
   4.647302647   0.000000000   0.000000000
   0.000000000   4.647302647   0.000000000
   0.000000000   0.000000000   2.954664739

ATOMIC_POSITIONS (angstrom)
Ti            2.3236513234        2.3236513234        1.4773318718
Ti            0.0000000000        0.0000000000        0.0000000000
O             3.7417458809        0.9055567658        1.4773318718
O             0.9055567658        3.7417458809        1.4773318718
O             1.4180945576        1.4180945576       -0.0000000000
O             3.2292090879        3.2292090879       -0.0000000000



     Writing output data file /work/TiO2_opt.save/
     NEW-OLD atomic charge density approx. for the potential

     Check: negative core charge=   -0.000006

     negative rho (up, down):  2.075E-03 0.000E+00
     extrapolated charge   48.04020, renormalised to   48.00000

     total cpu time spent up to now is       28.7 secs

     Self-consistent Calculation

     iteration #  1     ecut=    60.00 Ry     beta= 0.70
     Davidson diagonalization with overlap
     ethr =  1.00E-06,  avg # of iterations =  2.0

     negative rho (up, down):  2.100E-03 0.000E+00

     total cpu time spent up to now is       29.1 secs

     total energy              =    -405.93172172 Ry
     Harris-Foulkes estimate   =    -405.85013464 Ry
     estimated scf accuracy    <       0.00006669 Ry

     iteration #  2     ecut=    60.00 Ry     beta= 0.70
     Davidson diagonalization with overlap
     ethr =  1.39E-07,  avg # of iterations =  5.0

     negative rho (up, down):  2.080E-03 0.000E+00

     total cpu time spent up to now is       29.8 secs

     total energy              =    -405.93180618 Ry
     Harris-Foulkes estimate   =    -405.93189379 Ry
     estimated scf accuracy    <       0.00023065 Ry

     iteration #  3     ecut=    60.00 Ry     beta= 0.70
     Davidson diagonalization with overlap
     ethr =  1.39E-07,  avg # of iterations =  3.8

     negative rho (up, down):  2.080E-03 0.000E+00

     total cpu time spent up to now is       30.4 secs

     total energy              =    -405.93182931 Ry
     Harris-Foulkes estimate   =    -405.93184145 Ry
     estimated scf accuracy    <       0.00004039 Ry

     iteration #  4     ecut=    60.00 Ry     beta= 0.70
     Davidson diagonalization with overlap
     ethr =  8.41E-08,  avg # of iterations =  2.0

     negative rho (up, down):  2.076E-03 0.000E+00

     total cpu time spent up to now is       30.7 secs

     total energy              =    -405.93182611 Ry
     Harris-Foulkes estimate   =    -405.93183204 Ry
     estimated scf accuracy    <       0.00001177 Ry

     iteration #  5     ecut=    60.00 Ry     beta= 0.70
     Davidson diagonalization with overlap
     ethr =  2.45E-08,  avg # of iterations =  3.7

     negative rho (up, down):  2.073E-03 0.000E+00

     total cpu time spent up to now is       31.2 secs

     total energy              =    -405.93182666 Ry
     Harris-Foulkes estimate   =    -405.93182890 Ry
     estimated scf accuracy    <       0.00000874 Ry

     iteration #  6     ecut=    60.00 Ry     beta= 0.70
     Davidson diagonalization with overlap
     ethr =  1.82E-08,  avg # of iterations =  1.0

     negative rho (up, down):  2.073E-03 0.000E+00

     total cpu time spent up to now is       31.5 secs

     total energy              =    -405.93182641 Ry
     Harris-Foulkes estimate   =    -405.93182697 Ry
     estimated scf accuracy    <       0.00000431 Ry

     iteration #  7     ecut=    60.00 Ry     beta= 0.70
     Davidson diagonalization with overlap
     ethr =  8.99E-09,  avg # of iterations =  3.0

     negative rho (up, down):  2.072E-03 0.000E+00

     total cpu time spent up to now is       31.9 secs

     total energy              =    -405.93182683 Ry
     Harris-Foulkes estimate   =    -405.93182692 Ry
     estimated scf accuracy    <       0.00000033 Ry

     iteration #  8     ecut=    60.00 Ry     beta= 0.70
     Davidson diagonalization with overlap
     ethr =  6.98E-10,  avg # of iterations =  3.2

     negative rho (up, down):  2.072E-03 0.000E+00

     total cpu time spent up to now is       32.4 secs

     total energy              =    -405.93182690 Ry
     Harris-Foulkes estimate   =    -405.93182691 Ry
     estimated scf accuracy    <          6.9E-09 Ry

     iteration #  9     ecut=    60.00 Ry     beta= 0.70
     Davidson diagonalization with overlap
     ethr =  1.45E-11,  avg # of iterations =  4.5

     negative rho (up, down):  2.072E-03 0.000E+00

     total cpu time spent up to now is       33.1 secs

     total energy              =    -405.93182691 Ry
     Harris-Foulkes estimate   =    -405.93182691 Ry
     estimated scf accuracy    <          4.9E-09 Ry

     iteration # 10     ecut=    60.00 Ry     beta= 0.70
     Davidson diagonalization with overlap
     ethr =  1.03E-11,  avg # of iterations =  1.0

     negative rho (up, down):  2.072E-03 0.000E+00

     total cpu time spent up to now is       33.4 secs

     total energy              =    -405.93182691 Ry
     Harris-Foulkes estimate   =    -405.93182691 Ry
     estimated scf accuracy    <          5.2E-09 Ry

     iteration # 11     ecut=    60.00 Ry     beta= 0.70
     Davidson diagonalization with overlap
     ethr =  1.03E-11,  avg # of iterations =  1.0

     negative rho (up, down):  2.072E-03 0.000E+00

     total cpu time spent up to now is       33.6 secs

     total energy              =    -405.93182690 Ry
     Harris-Foulkes estimate   =    -405.93182691 Ry
     estimated scf accuracy    <          3.1E-09 Ry

     iteration # 12     ecut=    60.00 Ry     beta= 0.70
     Davidson diagonalization with overlap
     ethr =  6.35E-12,  avg # of iterations =  1.0

     negative rho (up, down):  2.072E-03 0.000E+00

     total cpu time spent up to now is       33.9 secs

     total energy              =    -405.93182690 Ry
     Harris-Foulkes estimate   =    -405.93182690 Ry
     estimated scf accuracy    <          1.8E-09 Ry

     iteration # 13     ecut=    60.00 Ry     beta= 0.70
     Davidson diagonalization with overlap
     ethr =  3.69E-12,  avg # of iterations =  1.7

     negative rho (up, down):  2.072E-03 0.000E+00

     total cpu time spent up to now is       34.2 secs

     total energy              =    -405.93182690 Ry
     Harris-Foulkes estimate   =    -405.93182690 Ry
     estimated scf accuracy    <          1.3E-09 Ry

     iteration # 14     ecut=    60.00 Ry     beta= 0.70
     Davidson diagonalization with overlap
     ethr =  2.80E-12,  avg # of iterations =  3.0

     negative rho (up, down):  2.072E-03 0.000E+00

     total cpu time spent up to now is       34.7 secs

     End of self-consistent calculation

          k = 0.1669 0.1669 0.2625 (  3392 PWs)   bands (ev):

   -48.0864 -48.0767 -24.3731 -24.3489 -24.3154 -24.3067 -24.2621 -24.2426
    -8.8757  -8.0323  -7.7590  -7.6370   3.6546   4.1788   4.4157   4.8644
     5.0835   5.9180   6.5207   6.7077   6.7592   7.7259   7.7626   8.4170

          k = 0.1669 0.1669-0.7874 (  3412 PWs)   bands (ev):

   -48.0512 -48.0512 -24.6448 -24.6395 -24.2660 -24.2592 -24.2455 -24.2446
    -8.2112  -7.9998  -7.8410  -7.6184   4.0544   4.5522   4.7888   4.7903
     4.9675   6.0308   6.1740   6.2778   6.8057   7.0363   7.2043   7.4022

          k = 0.1669-0.5006 0.2625 (  3404 PWs)   bands (ev):

   -48.0816 -48.0815 -24.3538 -24.3537 -24.3126 -24.3126 -24.2597 -24.2597
    -8.4160  -8.4160  -7.7596  -7.7596   4.1054   4.1054   4.6453   4.6453
     5.8141   5.8141   6.4183   6.4183   6.7834   6.7834   7.9177   7.9178

          k = 0.1669-0.5006-0.7874 (  3404 PWs)   bands (ev):

   -48.0512 -48.0511 -24.6454 -24.6453 -24.2601 -24.2600 -24.2450 -24.2449
    -8.2172  -8.2172  -7.6046  -7.6046   3.9068   3.9068   4.8331   4.8331
     5.4763   5.4763   6.2582   6.2582   7.1292   7.1292   7.8537   7.8537

          k =-0.5006-0.5006 0.2625 (  3424 PWs)   bands (ev):

   -48.0816 -48.0815 -24.3804 -24.3804 -24.3082 -24.3081 -24.2382 -24.2382
    -8.4427  -8.4427  -7.7181  -7.7181   3.6893   3.6893   4.4792   4.4792
     6.7190   6.7190   6.8184   6.8184   6.8507   6.8508   7.3983   7.3983

          k =-0.5006-0.5006-0.7874 (  3416 PWs)   bands (ev):

   -48.0512 -48.0511 -24.6383 -24.6382 -24.2674 -24.2674 -24.2464 -24.2464
    -8.0621  -8.0621  -7.7626  -7.7626   4.2222   4.2222   4.3221   4.3221
     5.3496   5.3496   6.0577   6.0577   7.5745   7.5745   8.1048   8.1048

     highest occupied level (ev):     8.4170

!    total energy              =    -405.93182690 Ry
     Harris-Foulkes estimate   =    -405.93182690 Ry
     estimated scf accuracy    <          2.4E-11 Ry

     The total energy is the sum of the following terms:

     one-electron contribution =    -127.04222530 Ry
     hartree contribution      =      86.92740091 Ry
     xc contribution           =     -65.77656477 Ry
     ewald contribution        =    -261.97898536 Ry
     one-center paw contrib.   =     -38.06145238 Ry

     convergence has been achieved in  14 iterations

     negative rho (up, down):  2.072E-03 0.000E+00

     Forces acting on atoms (cartesian axes, Ry/au):

     atom    1 type  1   force =     0.00000000    0.00000000   -0.00000000
     atom    2 type  1   force =     0.00000000    0.00000000    0.00000000
     atom    3 type  2   force =     0.00036222   -0.00036222   -0.00000000
     atom    4 type  2   force =    -0.00036222    0.00036222   -0.00000000
     atom    5 type  2   force =     0.00036222    0.00036222    0.00000000
     atom    6 type  2   force =    -0.00036222   -0.00036222    0.00000000

     Total force =     0.001025     Total SCF correction =     0.000001


     Computing stress (Cartesian axis) and pressure


     negative rho (up, down):  2.072E-03 0.000E+00
          total   stress  (Ry/bohr**3)                   (kbar)     P=       -0.39
   0.00000002   0.00000000   0.00000000            0.00        0.00        0.00
   0.00000000   0.00000002   0.00000000            0.00        0.00        0.00
   0.00000000   0.00000000  -0.00000798            0.00        0.00       -1.17


     number of scf cycles    =   4
     number of bfgs steps    =   3

     enthalpy old            =    -405.9318193219 Ry
     enthalpy new            =    -405.9318269047 Ry

     CASE: enthalpy_new < enthalpy_old

     new trust radius        =       0.0011313606 bohr
     new conv_thr            =            1.0E-10 Ry

     new unit-cell volume =    430.70233 a.u.^3 (    63.82350 Ang^3 )
     density =      4.15580 g/cm^3

CELL_PARAMETERS (angstrom)
   4.648278780   0.000000000   0.000000000
   0.000000000   4.648278780   0.000000000
   0.000000000   0.000000000   2.953903345

ATOMIC_POSITIONS (angstrom)
Ti            2.3241393902        2.3241393902        1.4769511749
Ti            0.0000000000        0.0000000000        0.0000000000
O             3.7429552355        0.9053235449        1.4769511749
O             0.9053235449        3.7429552355        1.4769511749
O             1.4188158453        1.4188158453       -0.0000000000
O             3.2294639340        3.2294639340       -0.0000000000



     Writing output data file /work/TiO2_opt.save/
     NEW-OLD atomic charge density approx. for the potential

     Check: negative core charge=   -0.000006

     negative rho (up, down):  2.072E-03 0.000E+00
     extrapolated charge   48.00747, renormalised to   48.00000

     total cpu time spent up to now is       35.3 secs

     Self-consistent Calculation

     iteration #  1     ecut=    60.00 Ry     beta= 0.70
     Davidson diagonalization with overlap
     ethr =  1.00E-06,  avg # of iterations =  2.0

     Threshold (ethr) on eigenvalues was too large:
     Diagonalizing with lowered threshold

     Davidson diagonalization with overlap
     ethr =  5.23E-09,  avg # of iterations =  4.2

     negative rho (up, down):  2.078E-03 0.000E+00

     total cpu time spent up to now is       36.2 secs

     total energy              =    -405.93182453 Ry
     Harris-Foulkes estimate   =    -405.91668644 Ry
     estimated scf accuracy    <       0.00000363 Ry

     iteration #  2     ecut=    60.00 Ry     beta= 0.70
     Davidson diagonalization with overlap
     ethr =  7.56E-09,  avg # of iterations =  4.3

     negative rho (up, down):  2.074E-03 0.000E+00

     total cpu time spent up to now is       36.9 secs

     total energy              =    -405.93182683 Ry
     Harris-Foulkes estimate   =    -405.93183263 Ry
     estimated scf accuracy    <       0.00001753 Ry

     iteration #  3     ecut=    60.00 Ry     beta= 0.70
     Davidson diagonalization with overlap
     ethr =  7.56E-09,  avg # of iterations =  3.2

     negative rho (up, down):  2.073E-03 0.000E+00

     total cpu time spent up to now is       37.4 secs

     total energy              =    -405.93182866 Ry
     Harris-Foulkes estimate   =    -405.93182926 Ry
     estimated scf accuracy    <       0.00000141 Ry

     iteration #  4     ecut=    60.00 Ry     beta= 0.70
     Davidson diagonalization with overlap
     ethr =  2.93E-09,  avg # of iterations =  2.0

     negative rho (up, down):  2.072E-03 0.000E+00

     total cpu time spent up to now is       37.8 secs

     total energy              =    -405.93182868 Ry
     Harris-Foulkes estimate   =    -405.93182884 Ry
     estimated scf accuracy    <       0.00000035 Ry

     iteration #  5     ecut=    60.00 Ry     beta= 0.70
     Davidson diagonalization with overlap
     ethr =  7.24E-10,  avg # of iterations =  2.0

     negative rho (up, down):  2.072E-03 0.000E+00

     total cpu time spent up to now is       38.1 secs

     total energy              =    -405.93182868 Ry
     Harris-Foulkes estimate   =    -405.93182871 Ry
     estimated scf accuracy    <       0.00000012 Ry

     iteration #  6     ecut=    60.00 Ry     beta= 0.70
     Davidson diagonalization with overlap
     ethr =  2.56E-10,  avg # of iterations =  2.2

     negative rho (up, down):  2.072E-03 0.000E+00

     total cpu time spent up to now is       38.5 secs

     total energy              =    -405.93182868 Ry
     Harris-Foulkes estimate   =    -405.93182869 Ry
     estimated scf accuracy    <       0.00000004 Ry

     iteration #  7     ecut=    60.00 Ry     beta= 0.70
     Davidson diagonalization with overlap
     ethr =  8.90E-11,  avg # of iterations =  3.0

     negative rho (up, down):  2.072E-03 0.000E+00

     total cpu time spent up to now is       38.9 secs

     total energy              =    -405.93182869 Ry
     Harris-Foulkes estimate   =    -405.93182869 Ry
     estimated scf accuracy    <          1.2E-09 Ry

     iteration #  8     ecut=    60.00 Ry     beta= 0.70
     Davidson diagonalization with overlap
     ethr =  2.59E-12,  avg # of iterations =  4.3

     negative rho (up, down):  2.072E-03 0.000E+00

     total cpu time spent up to now is       39.5 secs

     total energy              =    -405.93182869 Ry
     Harris-Foulkes estimate   =    -405.93182869 Ry
     estimated scf accuracy    <          9.5E-10 Ry

     iteration #  9     ecut=    60.00 Ry     beta= 0.70
     Davidson diagonalization with overlap
     ethr =  1.97E-12,  avg # of iterations =  1.0

     negative rho (up, down):  2.072E-03 0.000E+00

     total cpu time spent up to now is       39.8 secs

     total energy              =    -405.93182869 Ry
     Harris-Foulkes estimate   =    -405.93182869 Ry
     estimated scf accuracy    <          3.3E-10 Ry

     iteration # 10     ecut=    60.00 Ry     beta= 0.70
     Davidson diagonalization with overlap
     ethr =  6.95E-13,  avg # of iterations =  3.5

     negative rho (up, down):  2.072E-03 0.000E+00

     total cpu time spent up to now is       40.3 secs

     total energy              =    -405.93182869 Ry
     Harris-Foulkes estimate   =    -405.93182869 Ry
     estimated scf accuracy    <          1.6E-10 Ry

     iteration # 11     ecut=    60.00 Ry     beta= 0.70
     Davidson diagonalization with overlap
     ethr =  3.31E-13,  avg # of iterations =  1.0

     negative rho (up, down):  2.072E-03 0.000E+00

     total cpu time spent up to now is       40.5 secs

     End of self-consistent calculation

          k = 0.1668 0.1668 0.2625 (  3392 PWs)   bands (ev):

   -48.0882 -48.0785 -24.3749 -24.3507 -24.3174 -24.3086 -24.2639 -24.2445
    -8.8781  -8.0360  -7.7612  -7.6400   3.6525   4.1754   4.4135   4.8604
     5.0805   5.9167   6.5196   6.7054   6.7555   7.7232   7.7583   8.4121

          k = 0.1668 0.1668-0.7876 (  3412 PWs)   bands (ev):

   -48.0529 -48.0529 -24.6476 -24.6423 -24.2675 -24.2608 -24.2473 -24.2464
    -8.2140  -8.0039  -7.8420  -7.6208   4.0517   4.5496   4.7872   4.7905
     4.9660   6.0271   6.1704   6.2751   6.8052   7.0304   7.2028   7.3979

          k = 0.1668-0.5005 0.2625 (  3404 PWs)   bands (ev):

   -48.0834 -48.0833 -24.3556 -24.3556 -24.3145 -24.3145 -24.2615 -24.2615
    -8.4192  -8.4192  -7.7621  -7.7621   4.1020   4.1020   4.6419   4.6419
     5.8118   5.8118   6.4171   6.4171   6.7811   6.7811   7.9132   7.9132

          k = 0.1668-0.5005-0.7876 (  3404 PWs)   bands (ev):

   -48.0529 -48.0528 -24.6481 -24.6481 -24.2616 -24.2615 -24.2468 -24.2468
    -8.2201  -8.2201  -7.6069  -7.6069   3.9044   3.9044   4.8328   4.8328
     5.4740   5.4740   6.2544   6.2545   7.1258   7.1258   7.8499   7.8499

          k =-0.5005-0.5005 0.2625 (  3424 PWs)   bands (ev):

   -48.0833 -48.0833 -24.3822 -24.3822 -24.3101 -24.3100 -24.2400 -24.2400
    -8.4455  -8.4455  -7.7210  -7.7210   3.6875   3.6875   4.4758   4.4758
     6.7168   6.7168   6.8141   6.8141   6.8473   6.8473   7.3965   7.3965

          k =-0.5005-0.5005-0.7876 (  3416 PWs)   bands (ev):

   -48.0529 -48.0528 -24.6411 -24.6410 -24.2689 -24.2688 -24.2483 -24.2482
    -8.0660  -8.0660  -7.7639  -7.7639   4.2210   4.2210   4.3205   4.3205
     5.3473   5.3473   6.0538   6.0538   7.5727   7.5727   8.0995   8.0995

     highest occupied level (ev):     8.4121

!    total energy              =    -405.93182869 Ry
     Harris-Foulkes estimate   =    -405.93182869 Ry
     estimated scf accuracy    <          7.3E-11 Ry

     The total energy is the sum of the following terms:

     one-electron contribution =    -127.11459439 Ry
     hartree contribution      =      86.95938957 Ry
     xc contribution           =     -65.77677358 Ry
     ewald contribution        =    -261.93838241 Ry
     one-center paw contrib.   =     -38.06146787 Ry

     convergence has been achieved in  11 iterations

     negative rho (up, down):  2.072E-03 0.000E+00

     Forces acting on atoms (cartesian axes, Ry/au):

     atom    1 type  1   force =     0.00000000    0.00000000    0.00000000
     atom    2 type  1   force =     0.00000000    0.00000000    0.00000000
     atom    3 type  2   force =     0.00006847   -0.00006847   -0.00000000
     atom    4 type  2   force =    -0.00006847    0.00006847   -0.00000000
     atom    5 type  2   force =     0.00006847    0.00006847    0.00000000
     atom    6 type  2   force =    -0.00006847   -0.00006847    0.00000000

     Total force =     0.000194     Total SCF correction =     0.000003


     Computing stress (Cartesian axis) and pressure


     negative rho (up, down):  2.072E-03 0.000E+00
          total   stress  (Ry/bohr**3)                   (kbar)     P=       -0.22
  -0.00000139   0.00000000   0.00000000           -0.20        0.00        0.00
   0.00000000  -0.00000139   0.00000000            0.00       -0.20        0.00
   0.00000000   0.00000000  -0.00000162            0.00        0.00       -0.24


     bfgs converged in   5 scf cycles and   4 bfgs steps
     (criteria: energy <  1.0E-05 Ry, force <  1.0E-04Ry/Bohr, cell <  5.0E-01kbar)

     End of BFGS Geometry Optimization

     Final enthalpy =    -405.9318286880 Ry
Begin final coordinates
     new unit-cell volume =    430.70233 a.u.^3 (    63.82350 Ang^3 )
     density =      4.15580 g/cm^3

CELL_PARAMETERS (angstrom)
   4.648278780   0.000000000   0.000000000
   0.000000000   4.648278780   0.000000000
   0.000000000   0.000000000   2.953903345

ATOMIC_POSITIONS (angstrom)
Ti            2.3241393902        2.3241393902        1.4769511749
Ti            0.0000000000        0.0000000000        0.0000000000
O             3.7429552355        0.9053235449        1.4769511749
O             0.9053235449        3.7429552355        1.4769511749
O             1.4188158453        1.4188158453       -0.0000000000
O             3.2294639340        3.2294639340       -0.0000000000
End final coordinates



     Writing output data file /work/TiO2_opt.save/

     Final scf calculation at the relaxed structure.
     The G-vectors are recalculated for the final unit cell
     Results may differ from those at the preceding step.
 
     Parallelization info
     --------------------
     sticks:   dense  smooth     PW     G-vecs:    dense   smooth      PW
     Min          51      30      9                 1211      562      93
     Max          52      31     10                 1214      567      96
     Sum        2449    1481    437                58179    27099    4491
 


     bravais-lattice index     =            0
     lattice parameter (alat)  =       8.7934  a.u.
     unit-cell volume          =     430.7023 (a.u.)^3
     number of atoms/cell      =            6
     number of atomic types    =            2
     number of electrons       =        48.00
     number of Kohn-Sham states=           24
     kinetic-energy cutoff     =      60.0000  Ry
     charge density cutoff     =     400.0000  Ry
     convergence threshold     =      1.0E-10
     mixing beta               =       0.7000
     number of iterations used =            8  plain     mixing
     Exchange-correlation= PBE
                           (   1   4   3   4   0   0   0)

     celldm(1)=   8.793410  celldm(2)=   0.000000  celldm(3)=   0.000000
     celldm(4)=   0.000000  celldm(5)=   0.000000  celldm(6)=   0.000000

     crystal axes: (cart. coord. in units of alat)
               a(1) = (   0.998927   0.000000   0.000000 )  
               a(2) = (   0.000000   0.998927   0.000000 )  
               a(3) = (   0.000000   0.000000   0.634801 )  

     reciprocal axes: (cart. coord. in units 2 pi/alat)
               b(1) = (  1.001074  0.000000  0.000000 )  
               b(2) = (  0.000000  1.001074  0.000000 )  
               b(3) = (  0.000000  0.000000  1.575296 )  


     PseudoPot. # 1 for Ti read from file:
     /home1/gmqg/umqg0003/pp/SSSP_precision_pseudos/Ti.upf
     MD5 check sum: 88a00a6731bd790ddea75d31a80cb452
     Pseudo is Ultrasoft + core correction, Zval = 12.0
     Generated by new atomic code, or converted to UPF format
     Using radial grid of  851 points,  6 beta functions with: 
                l(1) =   0
                l(2) =   0
                l(3) =   1
                l(4) =   1
                l(5) =   2
                l(6) =   2
     Q(r) pseudized with  6 coefficients,  rinner =    1.000   1.000   1.000
                                                       1.000   1.000

     PseudoPot. # 2 for O  read from file:
     /home1/gmqg/umqg0003/pp/SSSP_precision_pseudos/O.upf
     MD5 check sum: 0234752ac141de4415c5fc33072bef88
     Pseudo is Projector augmented-wave + core cor, Zval =  6.0
     Generated using "atomic" code by A. Dal Corso v.5.0.99 svn rev. 10869
     Shape of augmentation charge: BESSEL
     Using radial grid of 1095 points,  4 beta functions with: 
                l(1) =   0
                l(2) =   0
                l(3) =   1
                l(4) =   1
     Q(r) pseudized with 0 coefficients 


     atomic species   valence    mass     pseudopotential
        Ti            12.00    47.86700     Ti( 1.00)
        O              6.00    15.99900     O ( 1.00)

     16 Sym. Ops., with inversion, found ( 8 have fractional translation)



   Cartesian axes

     site n.     atom                  positions (alat units)
         1           Ti  tau(   1) = (   0.4994635   0.4994635   0.3174006  )
         2           Ti  tau(   2) = (   0.0000000   0.0000000   0.0000000  )
         3           O   tau(   3) = (   0.8043706   0.1945563   0.3174006  )
         4           O   tau(   4) = (   0.1945563   0.8043706   0.3174006  )
         5           O   tau(   5) = (   0.3049071   0.3049071  -0.0000000  )
         6           O   tau(   6) = (   0.6940200   0.6940200  -0.0000000  )

     number of k points=     6
                       cart. coord. in units 2pi/alat
        k(    1) = (   0.1668457   0.1668457   0.2625493), wk =   0.5925926
        k(    2) = (   0.1668457   0.1668457  -0.7876480), wk =   0.2962963
        k(    3) = (   0.1668457  -0.5005371   0.2625493), wk =   0.5925926
        k(    4) = (   0.1668457  -0.5005371  -0.7876480), wk =   0.2962963
        k(    5) = (  -0.5005371  -0.5005371   0.2625493), wk =   0.1481481
        k(    6) = (  -0.5005371  -0.5005371  -0.7876480), wk =   0.0740741

     Dense  grid:    58179 G-vectors     FFT dimensions: (  60,  60,  36)

     Smooth grid:    27099 G-vectors     FFT dimensions: (  48,  48,  30)

     Estimated max dynamical RAM per process >      13.81 MB

     Estimated total dynamical RAM >     662.77 MB

     Check: negative core charge=   -0.000007

     Initial potential from superposition of free atoms

     starting charge   45.99991, renormalised to   48.00000

     negative rho (up, down):  2.178E-03 0.000E+00
     Starting wfcs are   36 randomized atomic wfcs
     Checking if some PAW data can be deallocated... 

     total cpu time spent up to now is       41.3 secs

     Self-consistent Calculation

     iteration #  1     ecut=    60.00 Ry     beta= 0.70
     Davidson diagonalization with overlap
     ethr =  1.00E-06,  avg # of iterations =  7.0

     negative rho (up, down):  4.266E-03 0.000E+00

     total cpu time spent up to now is       42.2 secs

     total energy              =    -405.22515663 Ry
     Harris-Foulkes estimate   =    -406.24362747 Ry
     estimated scf accuracy    <       1.22980581 Ry

     iteration #  2     ecut=    60.00 Ry     beta= 0.70
     Davidson diagonalization with overlap
     ethr =  2.56E-03,  avg # of iterations =  5.0

     negative rho (up, down):  1.295E-03 0.000E+00

     total cpu time spent up to now is       42.9 secs

     total energy              =    -402.34783495 Ry
     Harris-Foulkes estimate   =    -408.04046337 Ry
     estimated scf accuracy    <      26.65255804 Ry

     iteration #  3     ecut=    60.00 Ry     beta= 0.70
     Davidson diagonalization with overlap
     ethr =  2.56E-03,  avg # of iterations =  5.0

     negative rho (up, down):  1.379E-03 0.000E+00

     total cpu time spent up to now is       43.6 secs

     total energy              =    -405.91390971 Ry
     Harris-Foulkes estimate   =    -405.97114072 Ry
     estimated scf accuracy    <       0.30712476 Ry

     iteration #  4     ecut=    60.00 Ry     beta= 0.70
     Davidson diagonalization with overlap
     ethr =  6.40E-04,  avg # of iterations =  1.2

     negative rho (up, down):  1.517E-03 0.000E+00

     total cpu time spent up to now is       43.9 secs

     total energy              =    -405.88147124 Ry
     Harris-Foulkes estimate   =    -405.92083342 Ry
     estimated scf accuracy    <       0.19262678 Ry

     iteration #  5     ecut=    60.00 Ry     beta= 0.70
     Davidson diagonalization with overlap
     ethr =  4.01E-04,  avg # of iterations =  2.7

     negative rho (up, down):  1.763E-03 0.000E+00

     total cpu time spent up to now is       44.3 secs

     total energy              =    -405.89143691 Ry
     Harris-Foulkes estimate   =    -405.89886954 Ry
     estimated scf accuracy    <       0.02577148 Ry

     iteration #  6     ecut=    60.00 Ry     beta= 0.70
     Davidson diagonalization with overlap
     ethr =  5.37E-05,  avg # of iterations =  4.5

     negative rho (up, down):  1.786E-03 0.000E+00

     total cpu time spent up to now is       44.8 secs

     total energy              =    -405.93236370 Ry
     Harris-Foulkes estimate   =    -405.93273217 Ry
     estimated scf accuracy    <       0.01227221 Ry

     iteration #  7     ecut=    60.00 Ry     beta= 0.70
     Davidson diagonalization with overlap
     ethr =  2.56E-05,  avg # of iterations =  2.2

     negative rho (up, down):  2.035E-03 0.000E+00

     total cpu time spent up to now is       45.2 secs

     total energy              =    -405.93009198 Ry
     Harris-Foulkes estimate   =    -405.93282181 Ry
     estimated scf accuracy    <       0.00858525 Ry

     iteration #  8     ecut=    60.00 Ry     beta= 0.70
     Davidson diagonalization with overlap
     ethr =  1.79E-05,  avg # of iterations =  3.3

     negative rho (up, down):  2.126E-03 0.000E+00

     total cpu time spent up to now is       45.7 secs

     total energy              =    -405.93167570 Ry
     Harris-Foulkes estimate   =    -405.93167986 Ry
     estimated scf accuracy    <       0.00015670 Ry

     iteration #  9     ecut=    60.00 Ry     beta= 0.70
     Davidson diagonalization with overlap
     ethr =  3.26E-07,  avg # of iterations =  4.3

     negative rho (up, down):  2.080E-03 0.000E+00

     total cpu time spent up to now is       46.3 secs

     total energy              =    -405.93171793 Ry
     Harris-Foulkes estimate   =    -405.93187071 Ry
     estimated scf accuracy    <       0.00058427 Ry

     iteration # 10     ecut=    60.00 Ry     beta= 0.70
     Davidson diagonalization with overlap
     ethr =  3.26E-07,  avg # of iterations =  4.0

     negative rho (up, down):  2.064E-03 0.000E+00

     total cpu time spent up to now is       46.9 secs

     total energy              =    -405.93172425 Ry
     Harris-Foulkes estimate   =    -405.93175568 Ry
     estimated scf accuracy    <       0.00012508 Ry

     iteration # 11     ecut=    60.00 Ry     beta= 0.70
     Davidson diagonalization with overlap
     ethr =  2.61E-07,  avg # of iterations =  3.2

     negative rho (up, down):  2.065E-03 0.000E+00

     total cpu time spent up to now is       47.3 secs

     total energy              =    -405.93173701 Ry
     Harris-Foulkes estimate   =    -405.93173926 Ry
     estimated scf accuracy    <       0.00000875 Ry

     iteration # 12     ecut=    60.00 Ry     beta= 0.70
     Davidson diagonalization with overlap
     ethr =  1.82E-08,  avg # of iterations =  3.7

     negative rho (up, down):  2.069E-03 0.000E+00

     total cpu time spent up to now is       47.8 secs

     total energy              =    -405.93173963 Ry
     Harris-Foulkes estimate   =    -405.93173996 Ry
     estimated scf accuracy    <       0.00000094 Ry

     iteration # 13     ecut=    60.00 Ry     beta= 0.70
     Davidson diagonalization with overlap
     ethr =  1.97E-09,  avg # of iterations =  3.0

     negative rho (up, down):  2.071E-03 0.000E+00

     total cpu time spent up to now is       48.2 secs

     total energy              =    -405.93173960 Ry
     Harris-Foulkes estimate   =    -405.93173974 Ry
     estimated scf accuracy    <       0.00000023 Ry

     iteration # 14     ecut=    60.00 Ry     beta= 0.70
     Davidson diagonalization with overlap
     ethr =  4.72E-10,  avg # of iterations =  4.0

     negative rho (up, down):  2.071E-03 0.000E+00

     total cpu time spent up to now is       48.8 secs

     total energy              =    -405.93173965 Ry
     Harris-Foulkes estimate   =    -405.93173970 Ry
     estimated scf accuracy    <       0.00000020 Ry

     iteration # 15     ecut=    60.00 Ry     beta= 0.70
     Davidson diagonalization with overlap
     ethr =  4.19E-10,  avg # of iterations =  1.5

     negative rho (up, down):  2.071E-03 0.000E+00

     total cpu time spent up to now is       49.1 secs

     total energy              =    -405.93173965 Ry
     Harris-Foulkes estimate   =    -405.93173966 Ry
     estimated scf accuracy    <       0.00000007 Ry

     iteration # 16     ecut=    60.00 Ry     beta= 0.70
     Davidson diagonalization with overlap
     ethr =  1.43E-10,  avg # of iterations =  3.0

     negative rho (up, down):  2.071E-03 0.000E+00

     total cpu time spent up to now is       49.5 secs

     total energy              =    -405.93173966 Ry
     Harris-Foulkes estimate   =    -405.93173966 Ry
     estimated scf accuracy    <          4.4E-10 Ry

     iteration # 17     ecut=    60.00 Ry     beta= 0.70
     Davidson diagonalization with overlap
     ethr =  9.10E-13,  avg # of iterations =  4.2

     negative rho (up, down):  2.071E-03 0.000E+00

     total cpu time spent up to now is       50.1 secs

     End of self-consistent calculation

          k = 0.1668 0.1668 0.2625 (  3361 PWs)   bands (ev):

   -48.0881 -48.0785 -24.3749 -24.3507 -24.3173 -24.3085 -24.2638 -24.2444
    -8.8782  -8.0360  -7.7613  -7.6400   3.6526   4.1754   4.4135   4.8605
     5.0806   5.9168   6.5196   6.7055   6.7555   7.7232   7.7583   8.4121

          k = 0.1668 0.1668-0.7876 (  3392 PWs)   bands (ev):

   -48.0529 -48.0528 -24.6475 -24.6423 -24.2674 -24.2607 -24.2472 -24.2464
    -8.2140  -8.0040  -7.8421  -7.6208   4.0517   4.5497   4.7873   4.7906
     4.9660   6.0271   6.1704   6.2751   6.8052   7.0304   7.2028   7.3979

          k = 0.1668-0.5005 0.2625 (  3382 PWs)   bands (ev):

   -48.0833 -48.0833 -24.3555 -24.3555 -24.3145 -24.3144 -24.2614 -24.2614
    -8.4192  -8.4192  -7.7621  -7.7621   4.1020   4.1020   4.6419   4.6419
     5.8118   5.8118   6.4172   6.4172   6.7811   6.7811   7.9132   7.9133

          k = 0.1668-0.5005-0.7876 (  3380 PWs)   bands (ev):

   -48.0528 -48.0528 -24.6481 -24.6480 -24.2615 -24.2615 -24.2468 -24.2467
    -8.2202  -8.2202  -7.6069  -7.6069   3.9045   3.9045   4.8329   4.8329
     5.4740   5.4740   6.2545   6.2545   7.1258   7.1258   7.8499   7.8499

          k =-0.5005-0.5005 0.2625 (  3392 PWs)   bands (ev):

   -48.0833 -48.0832 -24.3821 -24.3821 -24.3100 -24.3100 -24.2400 -24.2400
    -8.4456  -8.4455  -7.7210  -7.7210   3.6875   3.6875   4.4759   4.4759
     6.7168   6.7168   6.8141   6.8141   6.8473   6.8474   7.3965   7.3965

          k =-0.5005-0.5005-0.7876 (  3384 PWs)   bands (ev):

   -48.0528 -48.0527 -24.6410 -24.6410 -24.2688 -24.2688 -24.2482 -24.2481
    -8.0661  -8.0661  -7.7639  -7.7639   4.2210   4.2210   4.3205   4.3205
     5.3474   5.3474   6.0538   6.0538   7.5728   7.5728   8.0996   8.0996

     highest occupied level (ev):     8.4121

!    total energy              =    -405.93173966 Ry
     Harris-Foulkes estimate   =    -405.93173966 Ry
     estimated scf accuracy    <          2.0E-11 Ry

     The total energy is the sum of the following terms:

     one-electron contribution =    -127.11439980 Ry
     hartree contribution      =      86.95924523 Ry
     xc contribution           =     -65.77673760 Ry
     ewald contribution        =    -261.93838241 Ry
     one-center paw contrib.   =     -38.06146508 Ry

     convergence has been achieved in  17 iterations

     negative rho (up, down):  2.071E-03 0.000E+00

     Forces acting on atoms (cartesian axes, Ry/au):

     atom    1 type  1   force =     0.00000000    0.00000000    0.00000000
     atom    2 type  1   force =     0.00000000    0.00000000    0.00000000
     atom    3 type  2   force =     0.00006477   -0.00006477   -0.00000000
     atom    4 type  2   force =    -0.00006477    0.00006477   -0.00000000
     atom    5 type  2   force =     0.00006477    0.00006477    0.00000000
     atom    6 type  2   force =    -0.00006477   -0.00006477    0.00000000

     Total force =     0.000183     Total SCF correction =     0.000000


     Computing stress (Cartesian axis) and pressure


     negative rho (up, down):  2.071E-03 0.000E+00
          total   stress  (Ry/bohr**3)                   (kbar)     P=       -0.17
  -0.00000113   0.00000000   0.00000000           -0.17        0.00        0.00
   0.00000000  -0.00000113   0.00000000            0.00       -0.17        0.00
   0.00000000   0.00000000  -0.00000116            0.00        0.00       -0.17


     Writing output data file /work/TiO2_opt.save/
 
     init_run     :      0.82s CPU      1.03s WALL (       2 calls)
     electrons    :     45.08s CPU     45.62s WALL (       6 calls)
     update_pot   :      0.75s CPU      0.76s WALL (       4 calls)
     forces       :      0.70s CPU      0.70s WALL (       6 calls)
     stress       :      1.30s CPU      1.30s WALL (       6 calls)

     Called by init_run:
     wfcinit      :      0.26s CPU      0.30s WALL (       2 calls)
     potinit      :      0.13s CPU      0.14s WALL (       2 calls)
     hinit0       :      0.37s CPU      0.53s WALL (       2 calls)

     Called by electrons:
     c_bands      :     38.25s CPU     38.59s WALL (      98 calls)
     sum_band     :      3.22s CPU      3.32s WALL (      98 calls)
     v_of_rho     :      0.54s CPU      0.58s WALL (     103 calls)
     newd         :      0.80s CPU      0.84s WALL (     103 calls)
     PAW_pot      :      2.21s CPU      2.21s WALL (     107 calls)
     mix_rho      :      0.18s CPU      0.18s WALL (      98 calls)

     Called by c_bands:
     init_us_2    :      0.07s CPU      0.09s WALL (    1284 calls)
     cegterg      :     38.01s CPU     38.18s WALL (     588 calls)

     Called by sum_band:
     sum_band:bec :      0.02s CPU      0.02s WALL (     612 calls)
     addusdens    :      0.99s CPU      1.03s WALL (      98 calls)

     Called by *egterg:
     h_psi        :     10.48s CPU     10.90s WALL (    2341 calls)
     s_psi        :      0.28s CPU      0.29s WALL (    2341 calls)
     g_psi        :      0.02s CPU      0.03s WALL (    1741 calls)
     cdiaghg      :     18.64s CPU     18.83s WALL (    2299 calls)

     Called by h_psi:
     h_psi:calbec :      0.61s CPU      0.60s WALL (    2341 calls)
     vloc_psi     :      9.57s CPU      9.97s WALL (    2341 calls)
     add_vuspsi   :      0.28s CPU      0.31s WALL (    2341 calls)

     General routines
     calbec       :      0.87s CPU      0.85s WALL (    3133 calls)
     fft          :      0.56s CPU      0.67s WALL (    1482 calls)
     ffts         :      0.10s CPU      0.06s WALL (     201 calls)
     fftw         :     10.95s CPU     11.37s WALL (   94202 calls)
     interpolate  :      0.08s CPU      0.09s WALL (     103 calls)
 
     Parallel routines
     fft_scatt_xy :      0.36s CPU      0.42s WALL (   95885 calls)
     fft_scatt_yz :      8.98s CPU      9.10s WALL (   95885 calls)
 
     PWSCF        :     49.49s CPU     50.55s WALL

 
   This run was terminated on:  12:53:50   3Sep2020            

=------------------------------------------------------------------------------=
   JOB DONE.
=------------------------------------------------------------------------------=
